LAMMPS data file -- atom_style full
768 atoms
512 bonds
256 angles
0 dihedrals
0 impropers
2 atom types
1 bond types
1 angle types
0 dihedral types
0 improper types
0.00000000 22.0000005 xlo xhi
0.00000000 22.0000005 ylo yhi
0.00000000 22.0000005 zlo zhi

# Pair Coeffs
# 1 H
# 2 O

# Bond Coeffs
# 1 H-O

# Angle Coeffs
# 1 H-O-H

Masses

1 1.0080000162124634 # H
2 15.99940013885498 # O

Atoms # full

1 1 2 -0.847599983215332 2.189999967813492 6.5299999713897705 1.0000000149011612 # O
2 1 1 0.423799991607666 1.4300000667572021 6.3099998235702515 1.6099999845027924 # H
3 1 1 0.423799991607666 2.319999933242798 5.78000009059906 0.3500000014901161 # H
4 2 2 -0.847599983215332 2.1400000154972076 2.800000011920929 9.909999966621399 # O
5 2 1 0.423799991607666 2.540000081062317 2.5299999117851257 10.779999494552612 # H
6 2 1 0.423799991607666 1.2600000202655792 2.329999953508377 9.789999723434448 # H
7 3 2 -0.847599983215332 5.680000185966492 12.77999997138977 11.699999570846558 # O
8 3 1 0.423799991607666 4.769999980926514 12.749999761581421 11.28999948501587 # H
9 3 1 0.423799991607666 5.8399999141693115 13.6899995803833 12.089999914169312 # H
10 4 2 -0.847599983215332 15.570000410079956 15.149999856948853 7.049999833106995 # O
11 4 1 0.423799991607666 15.160000324249268 14.910000562667847 7.929999828338623 # H
12 4 1 0.423799991607666 14.850000143051147 15.169999599456787 6.349999904632568 # H
13 5 2 -0.847599983215332 11.349999904632568 6.9999998807907104 7.139999866485596 # O
14 5 1 0.423799991607666 12.079999446868896 7.6499998569488525 6.919999718666077 # H
15 5 1 0.423799991607666 10.859999656677246 7.310000061988831 7.950000166893005 # H
16 6 2 -0.847599983215332 7.599999904632568 11.440000534057617 10.31000018119812 # O
17 6 1 0.423799991607666 6.8800002336502075 11.790000200271606 10.90000033378601 # H
18 6 1 0.423799991607666 8.019999861717224 12.18999981880188 9.800000190734863 # H
19 7 2 -0.847599983215332 6.8699997663497925 10.140000581741333 6.539999842643738 # O
20 7 1 0.423799991607666 7.540000081062317 9.919999837875366 7.250000238418579 # H
21 7 1 0.423799991607666 6.1000001430511475 10.62000036239624 6.949999928474426 # H
22 8 2 -0.847599983215332 6.949999928474426 11.56999945640564 18.109999895095825 # O
23 8 1 0.423799991607666 7.53000020980835 12.369999885559082 18.240000009536743 # H
24 8 1 0.423799991607666 6.09000027179718 11.84999942779541 17.680000066757202 # H
25 9 2 -0.847599983215332 3.4200000762939453 14.179999828338623 10.729999542236328 # O
26 9 1 0.423799991607666 2.549999952316284 13.960000276565552 10.299999713897705 # H
27 9 1 0.423799991607666 3.959999978542328 14.759999513626099 10.119999647140503 # H
28 10 2 -0.847599983215332 14.589999914169312 15.049999952316284 13.40000033378601 # O
29 10 1 0.423799991607666 14.96999979019165 15.950000286102295 13.609999418258667 # H
30 10 1 0.423799991607666 14.270000457763672 14.620000123977661 14.249999523162842 # H
31 11 2 -0.847599983215332 4.4200000166893005 3.9800000190734863 15.010000467300415 # O
32 11 1 0.423799991607666 5.210000276565552 3.370000123977661 14.980000257492065 # H
33 11 1 0.423799991607666 3.580000102519989 3.4400001168251038 15.03000020980835 # H
34 12 2 -0.847599983215332 16.200000047683716 4.5500001311302185 7.300000190734863 # O
35 12 1 0.423799991607666 15.299999713897705 4.729999899864197 6.909999847412109 # H
36 12 1 0.423799991607666 16.430000066757202 5.249999761581421 7.96999990940094 # H
37 13 2 -0.847599983215332 2.319999933242798 17.050000429153442 4.839999973773956 # O
38 13 1 0.423799991607666 2.5 17.940000295639038 5.260000228881836 # H
39 13 1 0.423799991607666 2.7700001001358032 17.009999752044678 3.9399999380111694 # H
40 14 2 -0.847599983215332 11.349999904632568 13.43999981880188 16.94000005722046 # O
41 14 1 0.423799991607666 11.779999732971191 13.40999960899353 17.84999966621399 # H
42 14 1 0.423799991607666 10.779999494552612 12.630000114440918 16.820000410079956 # H
43 15 2 -0.847599983215332 2.3100000619888306 14.37999963760376 5.46999990940094 # O
44 15 1 0.423799991607666 2.119999974966049 15.34999966621399 5.329999923706055 # H
45 15 1 0.423799991607666 1.4800000190734863 13.930000066757202 5.789999961853027 # H
46 16 2 -0.847599983215332 6.129999756813049 17.91000008583069 14.309999942779541 # O
47 16 1 0.423799991607666 5.270000100135803 17.71000027656555 14.789999723434448 # H
48 16 1 0.423799991607666 6.460000276565552 18.8100004196167 14.589999914169312 # H
49 17 2 -0.847599983215332 6.039999723434448 9.710000157356262 1.289999932050705 # O
50 17 1 0.423799991607666 6.060000061988831 10.540000200271606 0.7199999690055847 # H
51 17 1 0.423799991607666 6.439999938011169 9.909999966621399 2.1799999475479126 # H
52 18 2 -0.847599983215332 15.93999981880188 1.1800000071525574 14.68999981880188 # O
53 18 1 0.423799991607666 15.809999704360962 1.940000057220459 14.049999713897705 # H
54 18 1 0.423799991607666 15.850000381469727 1.509999930858612 15.62999963760376 # H
55 19 2 -0.847599983215332 1.340000033378601 6.330000162124634 5.659999847412109 # O
56 19 1 0.423799991607666 0.6199999898672104 5.6300002336502075 5.690000057220459 # H
57 19 1 0.423799991607666 1.1299999803304672 7.039999961853027 6.330000162124634 # H
58 20 2 -0.847599983215332 16.97000026702881 9.319999814033508 6.340000033378601 # O
59 20 1 0.423799991607666 17.829999923706055 8.830000162124634 6.209999918937683 # H
60 20 1 0.423799991607666 16.670000553131104 9.710000157356262 5.460000038146973 # H
61 21 2 -0.847599983215332 16.46999955177307 11.169999837875366 4.320000112056732 # O
62 21 1 0.423799991607666 17.309999465942383 11.139999628067017 3.7799999117851257 # H
63 21 1 0.423799991607666 16.619999408721924 11.720000505447388 5.139999985694885 # H
64 22 2 -0.847599983215332 1.1500000208616257 7.379999756813049 15.97000002861023 # O
65 22 1 0.423799991607666 2.10999995470047 7.289999723434448 16.21999979019165 # H
66 22 1 0.423799991607666 0.949999988079071 8.320000171661377 15.720000267028809 # H
67 23 2 -0.847599983215332 6.050000190734863 13.78999948501587 7.329999804496765 # O
68 23 1 0.423799991607666 5.6300002336502075 12.890000343322754 7.419999837875366 # H
69 23 1 0.423799991607666 5.929999947547913 14.119999408721924 6.389999985694885 # H
70 24 2 -0.847599983215332 12.910000085830688 12.339999675750732 14.249999523162842 # O
71 24 1 0.423799991607666 13.309999704360962 11.679999828338623 13.619999885559082 # H
72 24 1 0.423799991607666 13.420000076293945 12.319999933242798 15.119999647140503 # H
73 25 2 -0.847599983215332 8.09000015258789 0.04999999888241291 5.130000114440918 # O
74 25 1 0.423799991607666 8.479999899864197 0.9300000220537186 4.8500001430511475 # H
75 25 1 0.423799991607666 7.0899999141693115 0.10999999940395355 5.099999904632568 # H
76 26 2 -0.847599983215332 1.940000057220459 9.72000002861023 12.769999504089355 # O
77 26 1 0.423799991607666 2.8200000524520874 9.300000071525574 12.549999952316284 # H
78 26 1 0.423799991607666 1.1999999731779099 9.200000166893005 12.339999675750732 # H
79 27 2 -0.847599983215332 11.790000200271606 17.990000247955322 16.100000143051147 # O
80 27 1 0.423799991607666 12.239999771118164 18.519999980926514 15.379999876022339 # H
81 27 1 0.423799991607666 11.87999963760376 17.020000219345093 15.90000033378601 # H
82 28 2 -0.847599983215332 3.1999999284744263 2.549999952316284 17.890000343322754 # O
83 28 1 0.423799991607666 3.8899999856948853 3.240000009536743 18.12000036239624 # H
84 28 1 0.423799991607666 2.3399999737739563 2.7799999713897705 18.350000381469727 # H
85 29 2 -0.847599983215332 14.65000033378601 14.210000038146973 9.470000267028809 # O
86 29 1 0.423799991607666 14.010000228881836 14.40000057220459 10.210000276565552 # H
87 29 1 0.423799991607666 14.579999446868896 13.240000009536743 9.210000038146973 # H
88 30 2 -0.847599983215332 16.670000553131104 17.18000054359436 5.659999847412109 # O
89 30 1 0.423799991607666 16.169999837875366 16.979999542236328 4.819999933242798 # H
90 30 1 0.423799991607666 16.440000534057617 16.49999976158142 6.359999775886536 # H
91 31 2 -0.847599983215332 5.920000076293945 7.229999899864197 2.6499998569488525 # O
92 31 1 0.423799991607666 6.110000014305115 8.019999861717224 2.070000022649765 # H
93 31 1 0.423799991607666 5.189999938011169 7.459999918937683 3.2899999618530273 # H
94 32 2 -0.847599983215332 12.81000018119812 3.449999988079071 9.380000233650208 # O
95 32 1 0.423799991607666 11.890000104904175 3.0500000715255737 9.399999976158142 # H
96 32 1 0.423799991607666 13.43999981880188 2.879999876022339 9.909999966621399 # H
97 33 2 -0.847599983215332 15.779999494552612 16.770000457763672 3.0799999833106995 # O
98 33 1 0.423799991607666 16.759999990463257 16.990000009536743 3.0799999833106995 # H
99 33 1 0.423799991607666 15.540000200271606 16.31999969482422 2.2200000286102295 # H
100 34 2 -0.847599983215332 7.9100000858306885 6.1799997091293335 14.579999446868896 # O
101 34 1 0.423799991607666 7.689999938011169 5.93999981880188 15.520000457763672 # H
102 34 1 0.423799991607666 7.5 5.509999990463257 13.960000276565552 # H
103 35 2 -0.847599983215332 9.769999980926514 8.920000195503235 15.690000057220459 # O
104 35 1 0.423799991607666 10.140000581741333 8.009999990463257 15.479999780654907 # H
105 35 1 0.423799991607666 9.169999957084656 9.21999990940094 14.9399995803833 # H
106 36 2 -0.847599983215332 9.929999709129333 4.110000133514404 12.389999628067017 # O
107 36 1 0.423799991607666 9.139999747276306 4.429999887943268 12.899999618530273 # H
108 36 1 0.423799991607666 9.620000123977661 3.580000102519989 11.59999966621399 # H
109 37 2 -0.847599983215332 1.0700000077486038 8.230000138282776 7.509999871253967 # O
110 37 1 0.423799991607666 1.9099999964237213 8.109999895095825 8.040000200271606 # H
111 37 1 0.423799991607666 0.5799999833106995 9.02999997138977 7.850000262260437 # H
112 38 2 -0.847599983215332 1.2399999797344208 18.43000054359436 15.789999961853027 # O
113 38 1 0.423799991607666 1.1900000274181366 17.940000295639038 16.66000008583069 # H
114 38 1 0.423799991607666 0.3400000184774399 18.459999561309814 15.369999408721924 # H
115 39 2 -0.847599983215332 8.62999975681305 3.4200000762939453 1.7599999904632568 # O
116 39 1 0.423799991607666 9.25000011920929 4.129999876022339 1.420000046491623 # H
117 39 1 0.423799991607666 9.089999794960022 2.5299999117851257 1.7100000381469727 # H
118 40 2 -0.847599983215332 17.330000400543213 5.830000042915344 18.270000219345093 # O
119 40 1 0.423799991607666 16.890000104904175 6.690000295639038 18.040000200271606 # H
120 40 1 0.423799991607666 17.18000054359436 5.170000195503235 17.53999948501587 # H
121 41 2 -0.847599983215332 13.78000020980835 11.549999713897705 5.529999732971191 # O
122 41 1 0.423799991607666 14.440000057220459 11.080000400543213 4.939999878406525 # H
123 41 1 0.423799991607666 13.109999895095825 12.020000219345093 4.970000088214874 # H
124 42 2 -0.847599983215332 10.03000020980835 14.459999799728394 4.690000116825104 # O
125 42 1 0.423799991607666 9.639999866485596 15.260000228881836 4.21999990940094 # H
126 42 1 0.423799991607666 10.110000371932983 14.65999960899353 5.669999718666077 # H
127 43 2 -0.847599983215332 17.999999523162842 10.609999895095825 8.71999979019165 # O
128 43 1 0.423799991607666 17.389999628067017 10.420000553131104 7.940000295639038 # H
129 43 1 0.423799991607666 17.4399995803833 10.820000171661377 9.520000219345093 # H
130 44 2 -0.847599983215332 12.250000238418579 15.440000295639038 15.149999856948853 # O
131 44 1 0.423799991607666 12.139999866485596 14.670000076293945 15.779999494552612 # H
132 44 1 0.423799991607666 11.690000295639038 15.27999997138977 14.34000015258789 # H
133 45 2 -0.847599983215332 3.2100000977516174 9.480000138282776 2.409999966621399 # O
134 45 1 0.423799991607666 4.040000140666962 9.769999980926514 1.9499999284744263 # H
135 45 1 0.423799991607666 2.9100000858306885 8.600000143051147 2.0499999821186066 # H
136 46 2 -0.847599983215332 14.509999752044678 7.400000095367432 7.379999756813049 # O
137 46 1 0.423799991607666 14.579999446868896 6.800000071525574 8.180000185966492 # H
138 46 1 0.423799991607666 15.34999966621399 7.929999828338623 7.289999723434448 # H
139 47 2 -0.847599983215332 4.569999873638153 12.640000581741333 17.209999561309814 # O
140 47 1 0.423799991607666 4.129999876022339 12.649999856948853 16.3100004196167 # H
141 47 1 0.423799991607666 3.869999945163727 12.589999437332153 17.920000553131104 # H
142 48 2 -0.847599983215332 11.100000143051147 17.769999504089355 2.319999933242798 # O
143 48 1 0.423799991607666 10.460000038146973 17.239999771118164 2.8600001335144043 # H
144 48 1 0.423799991607666 11.380000114440918 17.239999771118164 1.509999930858612 # H
145 49 2 -0.847599983215332 1.9699999690055847 2.7700001001358032 14.9399995803833 # O
146 49 1 0.423799991607666 1.2200000137090683 3.409999907016754 14.789999723434448 # H
147 49 1 0.423799991607666 1.9499999284744263 2.4400000274181366 15.880000591278076 # H
148 50 2 -0.847599983215332 16.200000047683716 13.830000162124634 0.989999994635582 # O
149 50 1 0.423799991607666 16.03999972343445 14.68999981880188 0.5000000074505806 # H
150 50 1 0.423799991607666 15.609999895095825 13.109999895095825 0.6100000068545341 # H
151 51 2 -0.847599983215332 4.690000116825104 17.450000047683716 3.230000138282776 # O
152 51 1 0.423799991607666 5.03000020980835 17.999999523162842 3.9899998903274536 # H
153 51 1 0.423799991607666 5.460000038146973 17.170000076293945 2.6600000262260437 # H
154 52 2 -0.847599983215332 14.299999475479126 1.5299999713897705 4.050000011920929 # O
155 52 1 0.423799991607666 13.839999437332153 0.949999988079071 3.3799999952316284 # H
156 52 1 0.423799991607666 15.169999599456787 1.120000034570694 4.300000071525574 # H
157 53 2 -0.847599983215332 9.399999976158142 16.920000314712524 9.039999842643738 # O
158 53 1 0.423799991607666 10.230000019073486 16.390000581741333 9.229999780654907 # H
159 53 1 0.423799991607666 8.90999972820282 16.510000228881836 8.270000219345093 # H
160 54 2 -0.847599983215332 3.880000114440918 6.949999928474426 4.810000061988831 # O
161 54 1 0.423799991607666 4.239999949932098 6.019999980926514 4.819999933242798 # H
162 54 1 0.423799991607666 2.9100000858306885 6.930000185966492 5.049999952316284 # H
163 55 2 -0.847599983215332 15.460000038146973 2.1699999272823334 17.2599995136261 # O
164 55 1 0.423799991607666 15.369999408721924 2.5699999928474426 18.170000314712524 # H
165 55 1 0.423799991607666 14.72000002861023 1.509999930858612 17.109999656677246 # H
166 56 2 -0.847599983215332 6.269999742507935 0.7699999958276749 1.2700000405311584 # O
167 56 1 0.423799991607666 7.239999771118164 1.0000000149011612 1.289999932050705 # H
168 56 1 0.423799991607666 5.809999704360962 1.2999999523162842 0.560000017285347 # H
169 57 2 -0.847599983215332 8.75 15.080000162124634 11.990000009536743 # O
170 57 1 0.423799991607666 8.78000020980835 14.980000257492065 11.000000238418579 # H
171 57 1 0.423799991607666 9.509999752044678 14.579999446868896 12.410000562667847 # H
172 58 2 -0.847599983215332 9.240000247955322 5.080000162124634 9.020000100135803 # O
173 58 1 0.423799991607666 8.980000019073486 5.019999742507935 8.059999942779541 # H
174 58 1 0.423799991607666 9.639999866485596 4.210000038146973 9.309999942779541 # H
175 59 2 -0.847599983215332 14.129999876022339 11.979999542236328 0.27000000700354576 # O
176 59 1 0.423799991607666 14.65999960899353 11.28000020980835 0.7500000298023224 # H
177 59 1 0.423799991607666 13.270000219345093 12.15000033378601 0.7500000298023224 # H
178 60 2 -0.847599983215332 3.019999861717224 0.6100000068545341 1.9099999964237213 # O
179 60 1 0.423799991607666 3.67000013589859 1.289999932050705 1.5700000524520874 # H
180 60 1 0.423799991607666 3.5199999809265137 -0.17000000923871994 2.280000001192093 # H
181 61 2 -0.847599983215332 4.620000123977661 11.419999599456787 7.4299997091293335 # O
182 61 1 0.423799991607666 3.8899999856948853 11.260000467300415 8.09000015258789 # H
183 61 1 0.423799991607666 4.269999861717224 11.28000020980835 6.510000228881836 # H
184 62 2 -0.847599983215332 12.710000276565552 17.960000038146973 5.979999899864197 # O
185 62 1 0.423799991607666 13.109999895095825 18.559999465942383 5.289999842643738 # H
186 62 1 0.423799991607666 12.120000123977661 18.489999771118164 6.579999923706055 # H
187 63 2 -0.847599983215332 10.759999752044678 5.7099997997283936 -0.010000000474974513 # O
188 63 1 0.423799991607666 9.819999933242798 6.050000190734863 -0.04999999888241291 # H
189 63 1 0.423799991607666 11.069999933242798 5.699999928474426 0.9399999678134918 # H
190 64 2 -0.847599983215332 0.7299999892711639 5.6199997663497925 13.910000324249268 # O
191 64 1 0.423799991607666 1.6500000655651093 5.519999861717224 13.509999513626099 # H
192 64 1 0.423799991607666 0.7699999958276749 6.290000081062317 14.65000033378601 # H
193 65 2 -0.847599983215332 5.720000267028809 2.280000001192093 11.799999475479126 # O
194 65 1 0.423799991607666 6.019999980926514 1.340000033378601 11.660000085830688 # H
195 65 1 0.423799991607666 4.729999899864197 2.319999933242798 11.84000015258789 # H
196 66 2 -0.847599983215332 9.869999885559082 0.46000000089406967 7.689999938011169 # O
197 66 1 0.423799991607666 9.539999961853027 0.41999999433755875 6.7500001192092896 # H
198 66 1 0.423799991607666 9.950000047683716 -0.4699999839067459 8.059999942779541 # H
199 67 2 -0.847599983215332 14.34000015258789 11.679999828338623 8.529999852180481 # O
200 67 1 0.423799991607666 13.760000467300415 10.870000123977661 8.610000014305115 # H
201 67 1 0.423799991607666 14.440000057220459 11.920000314712524 7.5700002908706665 # H
202 68 2 -0.847599983215332 14.700000286102295 5.979999899864197 9.900000095367432 # O
203 68 1 0.423799991607666 14.270000457763672 5.0700002908706665 9.890000224113464 # H
204 68 1 0.423799991607666 15.369999408721924 6.019999980926514 10.62999963760376 # H
205 69 2 -0.847599983215332 18.660000562667847 8.240000009536743 3.7599998712539673 # O
206 69 1 0.423799991607666 19.040000438690186 7.5700002908706665 4.410000145435333 # H
207 69 1 0.423799991607666 18.009999990463257 7.7799999713897705 3.1600001454353333 # H
208 70 2 -0.847599983215332 4.930000007152557 13.940000534057617 1.6899999976158142 # O
209 70 1 0.423799991607666 4.099999964237213 13.739999532699585 2.199999988079071 # H
210 70 1 0.423799991607666 4.699999988079071 14.06000018119812 0.7199999690055847 # H
211 71 2 -0.847599983215332 14.010000228881836 5.870000123977661 0.8399999886751175 # O
212 71 1 0.423799991607666 13.320000171661377 5.6199997663497925 1.509999930858612 # H
213 71 1 0.423799991607666 14.739999771118164 5.180000066757202 0.8399999886751175 # H
214 72 2 -0.847599983215332 5.270000100135803 2.5600001215934753 3.190000057220459 # O
215 72 1 0.423799991607666 5.659999847412109 2.020000070333481 2.450000047683716 # H
216 72 1 0.423799991607666 5.329999923706055 3.529999852180481 2.9600000381469727 # H
217 73 2 -0.847599983215332 10.670000314712524 13.539999723434448 13.370000123977661 # O
218 73 1 0.423799991607666 9.850000143051147 13.220000267028809 13.839999437332153 # H
219 73 1 0.423799991607666 11.480000019073486 13.12000036239624 13.78999948501587 # H
220 74 2 -0.847599983215332 16.0099995136261 16.28999948501587 16.440000534057617 # O
221 74 1 0.423799991607666 16.050000190734863 16.610000133514404 15.499999523162842 # H
222 74 1 0.423799991607666 16.84000015258789 15.789999961853027 16.66000008583069 # H
223 75 2 -0.847599983215332 9.800000190734863 11.130000352859497 17.18999981880188 # O
224 75 1 0.423799991607666 8.830000162124634 11.230000257492065 17.389999628067017 # H
225 75 1 0.423799991607666 9.950000047683716 10.31000018119812 16.619999408721924 # H
226 76 2 -0.847599983215332 7.129999995231628 10.490000247955322 3.6899998784065247 # O
227 76 1 0.423799991607666 6.8800002336502075 10.509999990463257 4.659999907016754 # H
228 76 1 0.423799991607666 7.96999990940094 9.980000257492065 3.569999933242798 # H
229 77 2 -0.847599983215332 4.169999957084656 8.119999766349792 12.5 # O
230 77 1 0.423799991607666 4.909999966621399 8.259999752044678 13.15999984741211 # H
231 77 1 0.423799991607666 3.7299999594688416 7.229999899864197 12.669999599456787 # H
232 78 2 -0.847599983215332 12.699999809265137 3.8100001215934753 12.730000019073486 # O
233 78 1 0.423799991607666 12.999999523162842 4.639999866485596 13.179999589920044 # H
234 78 1 0.423799991607666 11.809999942779541 3.959999978542328 12.300000190734863 # H
235 79 2 -0.847599983215332 0.6400000303983688 15.729999542236328 13.329999446868896 # O
236 79 1 0.423799991607666 0.3700000047683716 16.56999945640564 12.869999408721924 # H
237 79 1 0.423799991607666 1.6300000250339508 15.700000524520874 13.43999981880188 # H
238 80 2 -0.847599983215332 3.619999885559082 11.039999723434448 4.950000047683716 # O
239 80 1 0.423799991607666 3.540000021457672 11.84999942779541 4.379999935626984 # H
240 80 1 0.423799991607666 3.619999885559082 10.219999551773071 4.379999935626984 # H
241 81 2 -0.847599983215332 5.590000152587891 5.46999990940094 8.640000224113464 # O
242 81 1 0.423799991607666 5.759999752044678 6.060000061988831 7.860000133514404 # H
243 81 1 0.423799991607666 6.1900001764297485 5.730000138282776 9.399999976158142 # H
244 82 2 -0.847599983215332 12.730000019073486 14.40999984741211 11.419999599456787 # O
245 82 1 0.423799991607666 13.309999704360962 14.639999866485596 12.200000286102295 # H
246 82 1 0.423799991607666 12.009999752044678 13.78000020980835 11.710000038146973 # H
247 83 2 -0.847599983215332 3.490000069141388 15.140000581741333 13.250000476837158 # O
248 83 1 0.423799991607666 3.310000002384186 14.68000054359436 12.380000352859497 # H
249 83 1 0.423799991607666 4.460000097751617 15.369999408721924 13.309999704360962 # H
250 84 2 -0.847599983215332 4.000000059604645 7.480000257492065 16.050000190734863 # O
251 84 1 0.423799991607666 4.620000123977661 8.040000200271606 15.499999523162842 # H
252 84 1 0.423799991607666 4.410000145435333 6.570000052452087 16.18000030517578 # H
253 85 2 -0.847599983215332 10.249999761581421 1.0899999737739563 17.71999955177307 # O
254 85 1 0.423799991607666 10.099999904632568 1.9599999487400055 17.2599995136261 # H
255 85 1 0.423799991607666 10.460000038146973 0.3799999877810478 17.039999961853027 # H
256 86 2 -0.847599983215332 4.959999918937683 0.5000000074505806 17.480000257492065 # O
257 86 1 0.423799991607666 4.779999852180481 -0.0 16.640000343322754 # H
258 86 1 0.423799991607666 4.230000078678131 1.1699999868869781 17.630000114440918 # H
259 87 2 -0.847599983215332 5.799999833106995 8.700000047683716 10.31999945640564 # O
260 87 1 0.423799991607666 6.150000095367432 9.629999995231628 10.219999551773071 # H
261 87 1 0.423799991607666 5.170000195503235 8.659999966621399 11.089999675750732 # H
262 88 2 -0.847599983215332 13.569999933242798 8.56000006198883 10.420000553131104 # O
263 88 1 0.423799991607666 12.829999923706055 8.550000190734863 9.739999771118164 # H
264 88 1 0.423799991607666 14.02999997138977 7.680000066757202 10.410000085830688 # H
265 89 2 -0.847599983215332 12.139999866485596 5.210000276565552 2.8700000047683716 # O
266 89 1 0.423799991607666 12.209999561309814 4.449999928474426 3.5100001096725464 # H
267 89 1 0.423799991607666 11.820000410079956 6.019999980926514 3.35999995470047 # H
268 90 2 -0.847599983215332 3.0500000715255737 2.0900000631809235 12.389999628067017 # O
269 90 1 0.423799991607666 2.680000066757202 2.4400000274181366 13.250000476837158 # H
270 90 1 0.423799991607666 2.7900001406669617 1.1299999803304672 12.269999980926514 # H
271 91 2 -0.847599983215332 0.3999999910593033 13.040000200271606 12.81999945640564 # O
272 91 1 0.423799991607666 0.949999988079071 12.549999952316284 13.489999771118164 # H
273 91 1 0.423799991607666 0.4699999839067459 14.019999504089355 12.979999780654907 # H
274 92 2 -0.847599983215332 7.319999933242798 6.370000243186951 10.670000314712524 # O
275 92 1 0.423799991607666 7.990000247955322 6.079999804496765 9.96999979019165 # H
276 92 1 0.423799991607666 6.949999928474426 7.260000109672546 10.420000553131104 # H
277 93 2 -0.847599983215332 17.269999980926514 9.300000071525574 18.459999561309814 # O
278 93 1 0.423799991607666 16.710000038146973 9.350000023841858 17.640000581741333 # H
279 93 1 0.423799991607666 16.790000200271606 9.750000238418579 19.220000505447388 # H
280 94 2 -0.847599983215332 3.1200000643730164 0.5799999833106995 6.299999952316284 # O
281 94 1 0.423799991607666 2.96999990940094 1.5600000321865082 6.389999985694885 # H
282 94 1 0.423799991607666 3.009999990463257 0.13000000268220901 7.18999981880188 # H
283 95 2 -0.847599983215332 10.219999551773071 7.620000243186951 9.649999737739563 # O
284 95 1 0.423799991607666 10.31999945640564 7.820000052452087 10.62999963760376 # H
285 95 1 0.423799991607666 9.96999979019165 6.6600000858306885 9.53000009059906 # H
286 96 2 -0.847599983215332 18.580000400543213 15.290000438690186 16.069999933242798 # O
287 96 1 0.423799991607666 18.739999532699585 15.379999876022339 15.089999437332153 # H
288 96 1 0.423799991607666 19.44000005722046 15.399999618530273 16.56999945640564 # H
289 97 2 -0.847599983215332 15.140000581741333 2.9899999499320984 1.2399999797344208 # O
290 97 1 0.423799991607666 14.709999561309814 2.0999999344348907 1.3899999856948853 # H
291 97 1 0.423799991607666 15.750000476837158 3.190000057220459 2.0000000298023224 # H
292 98 2 -0.847599983215332 13.029999732971191 8.339999914169312 0.3500000014901161 # O
293 98 1 0.423799991607666 13.389999866485596 7.419999837875366 0.5000000074505806 # H
294 98 1 0.423799991607666 13.170000314712524 8.610000014305115 -0.5999999865889549 # H
295 99 2 -0.847599983215332 3.0899998545646667 8.059999942779541 9.470000267028809 # O
296 99 1 0.423799991607666 4.0299999713897705 8.389999866485596 9.430000185966492 # H
297 99 1 0.423799991607666 3.0799999833106995 7.139999866485596 9.87999975681305 # H
298 100 2 -0.847599983215332 3.370000123977661 5.15999972820282 10.089999437332153 # O
299 100 1 0.423799991607666 2.9199999570846558 4.280000030994415 9.929999709129333 # H
300 100 1 0.423799991607666 4.1600000858306885 5.239999890327454 9.480000138282776 # H
301 101 2 -0.847599983215332 11.679999828338623 2.060000002384186 14.800000190734863 # O
302 101 1 0.423799991607666 11.629999876022339 2.7500000596046448 15.529999732971191 # H
303 101 1 0.423799991607666 11.84000015258789 2.5099998712539673 13.919999599456787 # H
304 102 2 -0.847599983215332 22.109999656677246 13.179999589920044 1.8400000035762787 # O
305 102 1 0.423799991607666 21.17000102996826 13.509999513626099 1.770000010728836 # H
306 102 1 0.423799991607666 22.109999656677246 12.259999513626099 2.2499999403953552 # H
307 103 2 -0.847599983215332 0.6700000166893005 18.15000057220459 9.120000004768372 # O
308 103 1 0.423799991607666 0.5499999970197678 17.15999960899353 9.100000262260437 # H
309 103 1 0.423799991607666 1.64000004529953 18.37000012397766 9.010000228881836 # H
310 104 2 -0.847599983215332 5.049999952316284 15.65999984741211 9.100000262260437 # O
311 104 1 0.423799991607666 5.7099997997283936 16.410000324249268 9.160000085830688 # H
312 104 1 0.423799991607666 5.419999957084656 14.9399995803833 8.519999980926514 # H
313 105 2 -0.847599983215332 9.959999918937683 7.960000038146973 12.350000143051147 # O
314 105 1 0.423799991607666 10.470000505447388 7.6499998569488525 13.15000057220459 # H
315 105 1 0.423799991607666 9.02999997138977 7.590000033378601 12.389999628067017 # H
316 106 2 -0.847599983215332 0.3799999877810478 5.6199997663497925 11.119999885559082 # O
317 106 1 0.423799991607666 1.120000034570694 5.130000114440918 10.670000314712524 # H
318 106 1 0.423799991607666 0.48000000417232513 5.550000071525574 12.109999656677246 # H
319 107 2 -0.847599983215332 13.78999948501587 9.440000057220459 16.619999408721924 # O
320 107 1 0.423799991607666 13.940000534057617 10.429999828338623 16.649999618530273 # H
321 107 1 0.423799991607666 13.849999904632568 9.120000004768372 15.670000314712524 # H
322 108 2 -0.847599983215332 8.15999984741211 5.7099997997283936 3.3399999141693115 # O
323 108 1 0.423799991607666 8.180000185966492 4.8500001430511475 2.8299999237060547 # H
324 108 1 0.423799991607666 7.310000061988831 6.200000047683716 3.140000104904175 # H
325 109 2 -0.847599983215332 16.449999809265137 5.960000157356262 11.950000524520874 # O
326 109 1 0.423799991607666 16.28999948501587 5.289999842643738 12.680000066757202 # H
327 109 1 0.423799991607666 17.350000143051147 5.789999961853027 11.540000438690186 # H
328 110 2 -0.847599983215332 2.669999897480011 15.62000036239624 17.53000020980835 # O
329 110 1 0.423799991607666 2.160000056028366 16.1899995803833 18.170000314712524 # H
330 110 1 0.423799991607666 2.4300000071525574 14.65999960899353 17.680000066757202 # H
331 111 2 -0.847599983215332 6.850000023841858 4.5899999141693115 12.680000066757202 # O
332 111 1 0.423799991607666 6.420000195503235 3.75 12.359999418258667 # H
333 111 1 0.423799991607666 6.940000057220459 5.239999890327454 11.920000314712524 # H
334 112 2 -0.847599983215332 9.399999976158142 16.720000505447388 14.620000123977661 # O
335 112 1 0.423799991607666 9.010000228881836 16.46000027656555 13.730000257492065 # H
336 112 1 0.423799991607666 9.369999766349792 17.71000027656555 14.72000002861023 # H
337 113 2 -0.847599983215332 13.339999914169312 10.460000038146973 12.330000400543213 # O
338 113 1 0.423799991607666 13.660000562667847 9.900000095367432 11.56000018119812 # H
339 113 1 0.423799991607666 12.5600004196167 11.009999513626099 12.039999961853027 # H
340 114 2 -0.847599983215332 13.029999732971191 8.489999771118164 3.140000104904175 # O
341 114 1 0.423799991607666 12.089999914169312 8.360000252723694 3.4599998593330383 # H
342 114 1 0.423799991607666 13.049999475479126 8.510000109672546 2.1400000154972076 # H